<?xml version="1.0" encoding="UTF-8"?>

<!-- generated on 2023-06-09 22:56:04 by Eclipse SUMO sumo Version 1.17.0
<configuration xmlns:xsi="http://www.w3.org/2001/XMLSchema-instance" xsi:noNamespaceSchemaLocation="http://sumo.dlr.de/xsd/sumoConfiguration.xsd">

    <input>
        <net-file value="C:\Users\Ayin\PycharmProjects\SwarmTraffic\data2\grid66.net.xml"/>
        <route-files value="C:\Users\Ayin\PycharmProjects\SwarmTraffic\data2\grid66.rou.xml"/>
        <junction-taz value="true"/>
    </input>

    <output>
        <tripinfo-output value=".\stats\tripinfo_a_1_b_0.8_g_1.0000000000000002.xml"/>
    </output>

    <processing>
        <tls.actuated.show-detectors value="true"/>
    </processing>

    <traci_server>
        <remote-port value="59081"/>
    </traci_server>

</configuration>
-->

<tripinfos xmlns:xsi="http://www.w3.org/2001/XMLSchema-instance" xsi:noNamespaceSchemaLocation="http://sumo.dlr.de/xsd/tripinfo_file.xsd">
    <tripinfo id="f_0.8" depart="17.00" departLane="A8A7_0" departPos="5.10" departSpeed="0.00" departDelay="0.95" arrival="129.00" arrivalLane="H0I0_0" arrivalPos="89.60" arrivalSpeed="15.00" duration="112.00" routeLength="1589.84" waitingTime="0.00" waitingCount="0" stopTime="0.00" timeLoss="9.55" rerouteNo="1" devices="tripinfo_f_0.8 routing_f_0.8" vType="DEFAULT_VEHTYPE" speedFactor="1.12" vaporized=""/>
    <tripinfo id="f_0.10" depart="25.00" departLane="A8A7_0" departPos="5.10" departSpeed="0.00" departDelay="0.67" arrival="135.00" arrivalLane="H0I0_0" arrivalPos="89.60" arrivalSpeed="16.04" duration="110.00" routeLength="1589.84" waitingTime="0.00" waitingCount="0" stopTime="0.00" timeLoss="9.73" rerouteNo="1" devices="tripinfo_f_0.10 routing_f_0.10" vType="DEFAULT_VEHTYPE" speedFactor="1.16" vaporized=""/>
    <tripinfo id="f_1.0" depart="1.00" departLane="I8I7_0" departPos="5.10" departSpeed="0.00" departDelay="0.32" arrival="136.00" arrivalLane="B0A0_0" arrivalPos="89.60" arrivalSpeed="11.93" duration="135.00" routeLength="1584.68" waitingTime="0.00" waitingCount="0" stopTime="0.00" timeLoss="12.08" rerouteNo="1" devices="tripinfo_f_1.0 routing_f_1.0" vType="DEFAULT_VEHTYPE" speedFactor="0.94" vaporized=""/>
    <tripinfo id="f_0.0" depart="1.00" departLane="A8B8_0" departPos="5.10" departSpeed="0.00" departDelay="0.77" arrival="137.00" arrivalLane="I1I0_0" arrivalPos="89.60" arrivalSpeed="4.22" duration="136.00" routeLength="1584.68" waitingTime="0.00" waitingCount="0" stopTime="0.00" timeLoss="27.59" rerouteNo="1" devices="tripinfo_f_0.0 routing_f_0.0" vType="DEFAULT_VEHTYPE" speedFactor="1.06" vaporized=""/>
    <tripinfo id="f_1.1" depart="4.00" departLane="I8I7_0" departPos="5.10" departSpeed="0.00" departDelay="1.90" arrival="137.00" arrivalLane="B0A0_0" arrivalPos="89.60" arrivalSpeed="13.47" duration="133.00" routeLength="1584.68" waitingTime="0.00" waitingCount="0" stopTime="0.00" timeLoss="19.22" rerouteNo="1" devices="tripinfo_f_1.1 routing_f_1.1" vType="DEFAULT_VEHTYPE" speedFactor="1.01" vaporized=""/>
    <tripinfo id="f_1.2" depart="7.00" departLane="I8I7_0" departPos="5.10" departSpeed="0.00" departDelay="3.85" arrival="139.00" arrivalLane="B0A0_0" arrivalPos="89.60" arrivalSpeed="13.92" duration="132.00" routeLength="1584.68" waitingTime="0.00" waitingCount="0" stopTime="0.00" timeLoss="25.60" rerouteNo="1" devices="tripinfo_f_1.2 routing_f_1.2" vType="DEFAULT_VEHTYPE" speedFactor="1.08" vaporized=""/>
    <tripinfo id="f_0.1" depart="7.00" departLane="A8B8_0" departPos="5.10" departSpeed="0.00" departDelay="0.59" arrival="143.00" arrivalLane="I1I0_0" arrivalPos="89.60" arrivalSpeed="4.98" duration="136.00" routeLength="1584.68" waitingTime="0.00" waitingCount="0" stopTime="0.00" timeLoss="25.26" rerouteNo="1" devices="tripinfo_f_0.1 routing_f_0.1" vType="DEFAULT_VEHTYPE" speedFactor="1.03" vaporized=""/>
    <tripinfo id="f_0.11" depart="28.00" departLane="A8A7_0" departPos="5.10" departSpeed="0.00" departDelay="2.33" arrival="152.00" arrivalLane="H0I0_0" arrivalPos="89.60" arrivalSpeed="13.28" duration="124.00" routeLength="1589.84" waitingTime="0.00" waitingCount="0" stopTime="0.00" timeLoss="10.23" rerouteNo="1" devices="tripinfo_f_0.11 routing_f_0.11" vType="DEFAULT_VEHTYPE" speedFactor="1.02" vaporized=""/>
    <tripinfo id="f_1.3" depart="10.00" departLane="I8I7_0" departPos="5.10" departSpeed="0.00" departDelay="0.58" arrival="153.00" arrivalLane="B0A0_0" arrivalPos="89.60" arrivalSpeed="11.42" duration="143.00" routeLength="1584.68" waitingTime="0.00" waitingCount="0" stopTime="0.00" timeLoss="12.92" rerouteNo="1" devices="tripinfo_f_1.3 routing_f_1.3" vType="DEFAULT_VEHTYPE" speedFactor="0.89" vaporized=""/>
    <tripinfo id="f_1.4" depart="13.00" departLane="I8I7_0" departPos="5.10" departSpeed="0.00" departDelay="2.99" arrival="154.00" arrivalLane="B0A0_0" arrivalPos="89.60" arrivalSpeed="12.07" duration="141.00" routeLength="1584.68" waitingTime="0.00" waitingCount="0" stopTime="0.00" timeLoss="18.68" rerouteNo="1" devices="tripinfo_f_1.4 routing_f_1.4" vType="DEFAULT_VEHTYPE" speedFactor="0.94" vaporized=""/>
    <tripinfo id="f_1.5" depart="21.00" departLane="I8I7_0" departPos="5.10" departSpeed="0.00" departDelay="0.77" arrival="157.00" arrivalLane="B0A0_0" arrivalPos="89.60" arrivalSpeed="12.28" duration="136.00" routeLength="1584.68" waitingTime="0.00" waitingCount="0" stopTime="0.00" timeLoss="12.00" rerouteNo="1" devices="tripinfo_f_1.5 routing_f_1.5" vType="DEFAULT_VEHTYPE" speedFactor="0.93" vaporized=""/>
    <tripinfo id="f_0.12" depart="31.00" departLane="A8A7_0" departPos="5.10" departSpeed="0.00" departDelay="2.97" arrival="157.00" arrivalLane="H0I0_0" arrivalPos="89.60" arrivalSpeed="13.78" duration="126.00" routeLength="1589.84" waitingTime="0.00" waitingCount="0" stopTime="0.00" timeLoss="10.94" rerouteNo="1" devices="tripinfo_f_0.12 routing_f_0.12" vType="DEFAULT_VEHTYPE" speedFactor="1.01" vaporized=""/>
    <tripinfo id="f_0.2" depart="10.00" departLane="A8B8_0" departPos="5.10" departSpeed="0.00" departDelay="3.00" arrival="163.00" arrivalLane="I1I0_0" arrivalPos="89.60" arrivalSpeed="7.79" duration="153.00" routeLength="1584.68" waitingTime="0.00" waitingCount="0" stopTime="0.00" timeLoss="15.41" rerouteNo="1" devices="tripinfo_f_0.2 routing_f_0.2" vType="DEFAULT_VEHTYPE" speedFactor="0.83" vaporized=""/>
    <tripinfo id="f_0.13" depart="34.00" departLane="A8A7_0" departPos="5.10" departSpeed="0.00" departDelay="5.06" arrival="163.00" arrivalLane="H0I0_0" arrivalPos="89.60" arrivalSpeed="12.65" duration="129.00" routeLength="1589.84" waitingTime="0.00" waitingCount="0" stopTime="0.00" timeLoss="10.21" rerouteNo="1" devices="tripinfo_f_0.13 routing_f_0.13" vType="DEFAULT_VEHTYPE" speedFactor="0.97" vaporized=""/>
    <tripinfo id="f_0.17" depart="37.00" departLane="A8A7_0" departPos="5.10" departSpeed="0.00" departDelay="5.46" arrival="164.00" arrivalLane="H0I0_0" arrivalPos="89.60" arrivalSpeed="14.41" duration="127.00" routeLength="1589.84" waitingTime="0.00" waitingCount="0" stopTime="0.00" timeLoss="24.75" rerouteNo="1" devices="tripinfo_f_0.17 routing_f_0.17" vType="DEFAULT_VEHTYPE" speedFactor="1.13" vaporized=""/>
    <tripinfo id="f_0.3" depart="13.00" departLane="A8B8_0" departPos="5.10" departSpeed="0.00" departDelay="3.20" arrival="165.00" arrivalLane="I1I0_0" arrivalPos="89.60" arrivalSpeed="9.95" duration="152.00" routeLength="1584.68" waitingTime="0.00" waitingCount="0" stopTime="0.00" timeLoss="42.56" rerouteNo="1" devices="tripinfo_f_0.3 routing_f_0.3" vType="DEFAULT_VEHTYPE" speedFactor="1.05" vaporized=""/>
    <tripinfo id="f_1.6" depart="24.00" departLane="I8I7_0" departPos="5.10" departSpeed="0.00" departDelay="3.51" arrival="166.00" arrivalLane="B0A0_0" arrivalPos="89.60" arrivalSpeed="11.19" duration="142.00" routeLength="1584.68" waitingTime="0.00" waitingCount="0" stopTime="0.00" timeLoss="11.66" rerouteNo="1" devices="tripinfo_f_1.6 routing_f_1.6" vType="DEFAULT_VEHTYPE" speedFactor="0.88" vaporized=""/>
    <tripinfo id="f_0.4" depart="16.00" departLane="A8B8_0" departPos="5.10" departSpeed="0.00" departDelay="4.99" arrival="167.00" arrivalLane="I1I0_0" arrivalPos="89.60" arrivalSpeed="11.74" duration="151.00" routeLength="1584.68" waitingTime="0.00" waitingCount="0" stopTime="0.00" timeLoss="16.60" rerouteNo="1" devices="tripinfo_f_0.4 routing_f_0.4" vType="DEFAULT_VEHTYPE" speedFactor="0.86" vaporized=""/>
    <tripinfo id="f_0.18" depart="40.00" departLane="A8A7_0" departPos="5.10" departSpeed="0.00" departDelay="1.60" arrival="167.00" arrivalLane="H0I0_0" arrivalPos="89.60" arrivalSpeed="12.89" duration="127.00" routeLength="1589.84" waitingTime="0.00" waitingCount="0" stopTime="0.00" timeLoss="11.30" rerouteNo="1" devices="tripinfo_f_0.18 routing_f_0.18" vType="DEFAULT_VEHTYPE" speedFactor="1.01" vaporized=""/>
    <tripinfo id="f_1.7" depart="27.00" departLane="I8I7_0" departPos="5.10" departSpeed="0.00" departDelay="4.24" arrival="168.00" arrivalLane="B0A0_0" arrivalPos="89.60" arrivalSpeed="12.68" duration="141.00" routeLength="1584.68" waitingTime="0.00" waitingCount="0" stopTime="0.00" timeLoss="19.06" rerouteNo="1" devices="tripinfo_f_1.7 routing_f_1.7" vType="DEFAULT_VEHTYPE" speedFactor="0.94" vaporized=""/>
    <tripinfo id="f_0.19" depart="43.00" departLane="A8A7_0" departPos="5.10" departSpeed="0.00" departDelay="4.51" arrival="168.00" arrivalLane="H0I0_0" arrivalPos="89.60" arrivalSpeed="15.72" duration="125.00" routeLength="1589.84" waitingTime="0.00" waitingCount="0" stopTime="0.00" timeLoss="26.60" rerouteNo="1" devices="tripinfo_f_0.19 routing_f_0.19" vType="DEFAULT_VEHTYPE" speedFactor="1.17" vaporized=""/>
    <tripinfo id="f_0.5" depart="19.00" departLane="A8B8_0" departPos="5.10" departSpeed="0.00" departDelay="7.20" arrival="169.00" arrivalLane="I1I0_0" arrivalPos="89.60" arrivalSpeed="14.82" duration="150.00" routeLength="1584.68" waitingTime="0.00" waitingCount="0" stopTime="0.00" timeLoss="44.43" rerouteNo="1" devices="tripinfo_f_0.5 routing_f_0.5" vType="DEFAULT_VEHTYPE" speedFactor="1.09" vaporized=""/>
    <tripinfo id="f_1.8" depart="30.00" departLane="I8I7_0" departPos="5.10" departSpeed="0.00" departDelay="6.48" arrival="169.00" arrivalLane="B0A0_0" arrivalPos="89.60" arrivalSpeed="12.84" duration="139.00" routeLength="1584.68" waitingTime="0.00" waitingCount="0" stopTime="0.00" timeLoss="16.51" rerouteNo="1" devices="tripinfo_f_1.8 routing_f_1.8" vType="DEFAULT_VEHTYPE" speedFactor="0.94" vaporized=""/>
    <tripinfo id="f_0.6" depart="22.00" departLane="A8B8_0" departPos="5.10" departSpeed="0.00" departDelay="8.67" arrival="170.00" arrivalLane="I1I0_0" arrivalPos="89.60" arrivalSpeed="13.99" duration="148.00" routeLength="1584.68" waitingTime="0.00" waitingCount="0" stopTime="0.00" timeLoss="36.65" rerouteNo="1" devices="tripinfo_f_0.6 routing_f_0.6" vType="DEFAULT_VEHTYPE" speedFactor="1.03" vaporized=""/>
    <tripinfo id="f_0.20" depart="46.00" departLane="A8A7_0" departPos="5.10" departSpeed="0.00" departDelay="0.49" arrival="170.00" arrivalLane="H0I0_0" arrivalPos="89.60" arrivalSpeed="15.45" duration="124.00" routeLength="1589.84" waitingTime="0.00" waitingCount="0" stopTime="0.00" timeLoss="25.87" rerouteNo="1" devices="tripinfo_f_0.20 routing_f_0.20" vType="DEFAULT_VEHTYPE" speedFactor="1.18" vaporized=""/>
    <tripinfo id="f_1.15" depart="42.00" departLane="I8H8_0" departPos="5.10" departSpeed="0.00" departDelay="0.87" arrival="171.00" arrivalLane="A1A0_0" arrivalPos="89.60" arrivalSpeed="9.07" duration="129.00" routeLength="1589.84" waitingTime="0.00" waitingCount="0" stopTime="0.00" timeLoss="15.78" rerouteNo="1" devices="tripinfo_f_1.15 routing_f_1.15" vType="DEFAULT_VEHTYPE" speedFactor="1.02" vaporized=""/>
    <tripinfo id="f_0.7" depart="25.00" departLane="A8B8_0" departPos="5.10" departSpeed="0.00" departDelay="10.08" arrival="172.00" arrivalLane="I1I0_0" arrivalPos="89.60" arrivalSpeed="13.98" duration="147.00" routeLength="1584.68" waitingTime="0.00" waitingCount="0" stopTime="0.00" timeLoss="36.94" rerouteNo="1" devices="tripinfo_f_0.7 routing_f_0.7" vType="DEFAULT_VEHTYPE" speedFactor="1.05" vaporized=""/>
    <tripinfo id="f_1.17" depart="48.00" departLane="I8H8_0" departPos="5.10" departSpeed="0.00" departDelay="0.57" arrival="173.00" arrivalLane="A1A0_0" arrivalPos="89.60" arrivalSpeed="9.95" duration="125.00" routeLength="1589.84" waitingTime="0.00" waitingCount="0" stopTime="0.00" timeLoss="19.76" rerouteNo="1" devices="tripinfo_f_1.17 routing_f_1.17" vType="DEFAULT_VEHTYPE" speedFactor="1.10" vaporized=""/>
    <tripinfo id="f_0.22" depart="50.00" departLane="A8A7_0" departPos="5.10" departSpeed="0.00" departDelay="0.26" arrival="173.00" arrivalLane="H0I0_0" arrivalPos="89.60" arrivalSpeed="13.30" duration="123.00" routeLength="1589.84" waitingTime="0.00" waitingCount="0" stopTime="0.00" timeLoss="11.16" rerouteNo="1" devices="tripinfo_f_0.22 routing_f_0.22" vType="DEFAULT_VEHTYPE" speedFactor="1.03" vaporized=""/>
    <tripinfo id="f_0.9" depart="28.00" departLane="A8B8_0" departPos="5.10" departSpeed="0.00" departDelay="9.29" arrival="174.00" arrivalLane="I1I0_0" arrivalPos="89.60" arrivalSpeed="12.95" duration="146.00" routeLength="1584.68" waitingTime="0.00" waitingCount="0" stopTime="0.00" timeLoss="29.48" rerouteNo="1" devices="tripinfo_f_0.9 routing_f_0.9" vType="DEFAULT_VEHTYPE" speedFactor="0.99" vaporized=""/>
    <tripinfo id="f_1.9" depart="33.00" departLane="I8I7_0" departPos="5.10" departSpeed="0.00" departDelay="3.33" arrival="174.00" arrivalLane="B0A0_0" arrivalPos="89.60" arrivalSpeed="12.23" duration="141.00" routeLength="1584.68" waitingTime="0.00" waitingCount="0" stopTime="0.00" timeLoss="15.97" rerouteNo="1" devices="tripinfo_f_1.9 routing_f_1.9" vType="DEFAULT_VEHTYPE" speedFactor="0.92" vaporized=""/>
    <tripinfo id="f_0.23" depart="53.00" departLane="A8A7_0" departPos="5.10" departSpeed="0.00" departDelay="0.60" arrival="175.00" arrivalLane="H0I0_0" arrivalPos="89.60" arrivalSpeed="14.81" duration="122.00" routeLength="1589.84" waitingTime="0.00" waitingCount="0" stopTime="0.00" timeLoss="16.09" rerouteNo="1" devices="tripinfo_f_0.23 routing_f_0.23" vType="DEFAULT_VEHTYPE" speedFactor="1.09" vaporized=""/>
    <tripinfo id="f_1.10" depart="36.00" departLane="I8I7_0" departPos="5.10" departSpeed="0.00" departDelay="5.11" arrival="176.00" arrivalLane="B0A0_0" arrivalPos="89.60" arrivalSpeed="11.94" duration="140.00" routeLength="1584.68" waitingTime="0.00" waitingCount="0" stopTime="0.00" timeLoss="18.99" rerouteNo="1" devices="tripinfo_f_1.10 routing_f_1.10" vType="DEFAULT_VEHTYPE" speedFactor="0.95" vaporized=""/>
    <tripinfo id="f_1.19" depart="53.00" departLane="I8H8_0" departPos="5.10" departSpeed="0.00" departDelay="0.79" arrival="177.00" arrivalLane="A1A0_0" arrivalPos="89.60" arrivalSpeed="8.96" duration="124.00" routeLength="1589.84" waitingTime="0.00" waitingCount="0" stopTime="0.00" timeLoss="13.01" rerouteNo="1" devices="tripinfo_f_1.19 routing_f_1.19" vType="DEFAULT_VEHTYPE" speedFactor="1.04" vaporized=""/>
    <tripinfo id="f_0.24" depart="56.00" departLane="A8A7_0" departPos="5.10" departSpeed="0.00" departDelay="0.03" arrival="177.00" arrivalLane="H0I0_0" arrivalPos="89.60" arrivalSpeed="15.02" duration="121.00" routeLength="1589.84" waitingTime="0.00" waitingCount="0" stopTime="0.00" timeLoss="13.87" rerouteNo="1" devices="tripinfo_f_0.24 routing_f_0.24" vType="DEFAULT_VEHTYPE" speedFactor="1.09" vaporized=""/>
    <tripinfo id="f_1.20" depart="56.00" departLane="I8H8_0" departPos="5.10" departSpeed="0.00" departDelay="2.67" arrival="179.00" arrivalLane="A1A0_0" arrivalPos="89.60" arrivalSpeed="12.00" duration="123.00" routeLength="1589.84" waitingTime="0.00" waitingCount="0" stopTime="0.00" timeLoss="12.38" rerouteNo="1" devices="tripinfo_f_1.20 routing_f_1.20" vType="DEFAULT_VEHTYPE" speedFactor="1.04" vaporized=""/>
    <tripinfo id="f_0.14" depart="31.00" departLane="A8B8_0" departPos="5.10" departSpeed="0.00" departDelay="1.93" arrival="180.00" arrivalLane="I1I0_0" arrivalPos="89.60" arrivalSpeed="11.81" duration="149.00" routeLength="1584.68" waitingTime="0.00" waitingCount="0" stopTime="0.00" timeLoss="19.52" rerouteNo="1" devices="tripinfo_f_0.14 routing_f_0.14" vType="DEFAULT_VEHTYPE" speedFactor="0.89" vaporized=""/>
    <tripinfo id="f_1.25" depart="60.00" departLane="I8H8_0" departPos="5.10" departSpeed="0.00" departDelay="0.58" arrival="181.00" arrivalLane="A1A0_0" arrivalPos="89.60" arrivalSpeed="14.80" duration="121.00" routeLength="1589.84" waitingTime="0.00" waitingCount="0" stopTime="0.00" timeLoss="21.96" rerouteNo="1" devices="tripinfo_f_1.25 routing_f_1.25" vType="DEFAULT_VEHTYPE" speedFactor="1.17" vaporized=""/>
    <tripinfo id="f_1.11" depart="39.00" departLane="I8I7_0" departPos="5.10" departSpeed="0.00" departDelay="5.23" arrival="182.00" arrivalLane="B0A0_0" arrivalPos="89.60" arrivalSpeed="11.80" duration="143.00" routeLength="1584.68" waitingTime="0.00" waitingCount="0" stopTime="0.00" timeLoss="19.12" rerouteNo="1" devices="tripinfo_f_1.11 routing_f_1.11" vType="DEFAULT_VEHTYPE" speedFactor="0.93" vaporized=""/>
    <tripinfo id="f_1.12" depart="42.00" departLane="I8I7_0" departPos="5.10" departSpeed="0.00" departDelay="5.84" arrival="183.00" arrivalLane="B0A0_0" arrivalPos="89.60" arrivalSpeed="14.32" duration="141.00" routeLength="1584.68" waitingTime="0.00" waitingCount="0" stopTime="0.00" timeLoss="43.28" rerouteNo="1" devices="tripinfo_f_1.12 routing_f_1.12" vType="DEFAULT_VEHTYPE" speedFactor="1.18" vaporized=""/>
    <tripinfo id="f_1.13" depart="45.00" departLane="I8I7_0" departPos="5.10" departSpeed="0.00" departDelay="8.30" arrival="185.00" arrivalLane="B0A0_0" arrivalPos="89.60" arrivalSpeed="15.67" duration="140.00" routeLength="1584.68" waitingTime="0.00" waitingCount="0" stopTime="0.00" timeLoss="40.03" rerouteNo="1" devices="tripinfo_f_1.13 routing_f_1.13" vType="DEFAULT_VEHTYPE" speedFactor="1.15" vaporized=""/>
    <tripinfo id="f_0.25" depart="59.00" departLane="A8A7_0" departPos="5.10" departSpeed="0.00" departDelay="2.61" arrival="185.00" arrivalLane="H0I0_0" arrivalPos="89.60" arrivalSpeed="13.69" duration="126.00" routeLength="1589.84" waitingTime="0.00" waitingCount="0" stopTime="0.00" timeLoss="10.40" rerouteNo="1" devices="tripinfo_f_0.25 routing_f_0.25" vType="DEFAULT_VEHTYPE" speedFactor="1.00" vaporized=""/>
    <tripinfo id="f_1.14" depart="48.00" departLane="I8I7_0" departPos="5.10" departSpeed="0.00" departDelay="7.62" arrival="187.00" arrivalLane="B0A0_0" arrivalPos="89.60" arrivalSpeed="12.75" duration="139.00" routeLength="1584.68" waitingTime="0.00" waitingCount="0" stopTime="0.00" timeLoss="23.63" rerouteNo="1" devices="tripinfo_f_1.14 routing_f_1.14" vType="DEFAULT_VEHTYPE" speedFactor="0.99" vaporized=""/>
    <tripinfo id="f_1.26" depart="63.00" departLane="I8H8_0" departPos="5.10" departSpeed="0.00" departDelay="3.45" arrival="187.00" arrivalLane="A1A0_0" arrivalPos="89.60" arrivalSpeed="14.04" duration="124.00" routeLength="1589.84" waitingTime="0.00" waitingCount="0" stopTime="0.00" timeLoss="10.90" rerouteNo="1" devices="tripinfo_f_1.26 routing_f_1.26" vType="DEFAULT_VEHTYPE" speedFactor="1.02" vaporized=""/>
    <tripinfo id="f_0.15" depart="34.00" departLane="A8B8_0" departPos="5.10" departSpeed="0.00" departDelay="4.55" arrival="188.00" arrivalLane="I1I0_0" arrivalPos="89.60" arrivalSpeed="10.98" duration="154.00" routeLength="1584.68" waitingTime="0.00" waitingCount="0" stopTime="0.00" timeLoss="15.17" rerouteNo="1" devices="tripinfo_f_0.15 routing_f_0.15" vType="DEFAULT_VEHTYPE" speedFactor="0.83" vaporized=""/>
    <tripinfo id="f_0.26" depart="62.00" departLane="A8A7_0" departPos="5.10" departSpeed="0.00" departDelay="0.78" arrival="188.00" arrivalLane="H0I0_0" arrivalPos="89.60" arrivalSpeed="12.94" duration="126.00" routeLength="1589.84" waitingTime="0.00" waitingCount="0" stopTime="0.00" timeLoss="10.82" rerouteNo="1" devices="tripinfo_f_0.26 routing_f_0.26" vType="DEFAULT_VEHTYPE" speedFactor="1.00" vaporized=""/>
    <tripinfo id="f_1.27" depart="66.00" departLane="I8H8_0" departPos="5.10" departSpeed="0.00" departDelay="6.37" arrival="189.00" arrivalLane="A1A0_0" arrivalPos="89.60" arrivalSpeed="14.91" duration="123.00" routeLength="1589.84" waitingTime="0.00" waitingCount="0" stopTime="0.00" timeLoss="17.11" rerouteNo="1" devices="tripinfo_f_1.27 routing_f_1.27" vType="DEFAULT_VEHTYPE" speedFactor="1.10" vaporized=""/>
    <tripinfo id="f_0.16" depart="37.00" departLane="A8B8_0" departPos="5.10" departSpeed="0.00" departDelay="7.31" arrival="190.00" arrivalLane="I1I0_0" arrivalPos="89.60" arrivalSpeed="11.49" duration="153.00" routeLength="1584.68" waitingTime="0.00" waitingCount="0" stopTime="0.00" timeLoss="20.85" rerouteNo="1" devices="tripinfo_f_0.16 routing_f_0.16" vType="DEFAULT_VEHTYPE" speedFactor="0.87" vaporized=""/>
    <tripinfo id="f_0.21" depart="50.00" departLane="A8B8_0" departPos="5.10" departSpeed="0.00" departDelay="0.33" arrival="191.00" arrivalLane="I1I0_0" arrivalPos="89.60" arrivalSpeed="12.04" duration="141.00" routeLength="1584.68" waitingTime="0.00" waitingCount="0" stopTime="0.00" timeLoss="13.57" rerouteNo="1" devices="tripinfo_f_0.21 routing_f_0.21" vType="DEFAULT_VEHTYPE" speedFactor="0.90" vaporized=""/>
    <tripinfo id="f_1.29" depart="69.00" departLane="I8H8_0" departPos="5.10" departSpeed="0.00" departDelay="5.92" arrival="191.00" arrivalLane="A1A0_0" arrivalPos="89.60" arrivalSpeed="15.80" duration="122.00" routeLength="1589.84" waitingTime="0.00" waitingCount="0" stopTime="0.00" timeLoss="20.49" rerouteNo="1" devices="tripinfo_f_1.29 routing_f_1.29" vType="DEFAULT_VEHTYPE" speedFactor="1.14" vaporized=""/>
    <tripinfo id="f_1.16" depart="51.00" departLane="I8I7_0" departPos="5.10" departSpeed="0.00" departDelay="7.66" arrival="192.00" arrivalLane="B0A0_0" arrivalPos="89.60" arrivalSpeed="12.30" duration="141.00" routeLength="1584.68" waitingTime="0.00" waitingCount="0" stopTime="0.00" timeLoss="22.38" rerouteNo="1" devices="tripinfo_f_1.16 routing_f_1.16" vType="DEFAULT_VEHTYPE" speedFactor="0.97" vaporized=""/>
    <tripinfo id="f_1.18" depart="54.00" departLane="I8I7_0" departPos="5.10" departSpeed="0.00" departDelay="4.79" arrival="196.00" arrivalLane="B0A0_0" arrivalPos="89.60" arrivalSpeed="12.51" duration="142.00" routeLength="1584.68" waitingTime="0.00" waitingCount="0" stopTime="0.00" timeLoss="21.30" rerouteNo="1" devices="tripinfo_f_1.18 routing_f_1.18" vType="DEFAULT_VEHTYPE" speedFactor="0.96" vaporized=""/>
    <tripinfo id="f_1.30" depart="72.00" departLane="I8H8_0" departPos="5.10" departSpeed="0.00" departDelay="8.83" arrival="196.00" arrivalLane="A1A0_0" arrivalPos="89.60" arrivalSpeed="13.72" duration="124.00" routeLength="1589.84" waitingTime="0.00" waitingCount="0" stopTime="0.00" timeLoss="10.33" rerouteNo="1" devices="tripinfo_f_1.30 routing_f_1.30" vType="DEFAULT_VEHTYPE" speedFactor="1.02" vaporized=""/>
    <tripinfo id="f_0.28" depart="67.00" departLane="A8A7_0" departPos="5.10" departSpeed="0.00" departDelay="0.80" arrival="197.00" arrivalLane="H0I0_0" arrivalPos="89.60" arrivalSpeed="13.35" duration="130.00" routeLength="1589.84" waitingTime="0.00" waitingCount="0" stopTime="0.00" timeLoss="10.84" rerouteNo="1" devices="tripinfo_f_0.28 routing_f_0.28" vType="DEFAULT_VEHTYPE" speedFactor="0.97" vaporized=""/>
    <tripinfo id="f_1.31" depart="75.00" departLane="I8H8_0" departPos="5.10" departSpeed="0.00" departDelay="8.43" arrival="197.00" arrivalLane="A1A0_0" arrivalPos="89.60" arrivalSpeed="14.04" duration="122.00" routeLength="1589.84" waitingTime="0.00" waitingCount="0" stopTime="0.00" timeLoss="15.72" rerouteNo="1" devices="tripinfo_f_1.31 routing_f_1.31" vType="DEFAULT_VEHTYPE" speedFactor="1.08" vaporized=""/>
    <tripinfo id="f_0.29" depart="70.00" departLane="A8A7_0" departPos="5.10" departSpeed="0.00" departDelay="2.91" arrival="199.00" arrivalLane="H0I0_0" arrivalPos="89.60" arrivalSpeed="15.35" duration="129.00" routeLength="1589.84" waitingTime="0.00" waitingCount="0" stopTime="0.00" timeLoss="25.35" rerouteNo="1" devices="tripinfo_f_0.29 routing_f_0.29" vType="DEFAULT_VEHTYPE" speedFactor="1.12" vaporized=""/>
    <tripinfo id="f_1.32" depart="78.00" departLane="I8H8_0" departPos="5.10" departSpeed="0.00" departDelay="7.66" arrival="202.00" arrivalLane="A1A0_0" arrivalPos="89.60" arrivalSpeed="12.86" duration="124.00" routeLength="1589.84" waitingTime="0.00" waitingCount="0" stopTime="0.00" timeLoss="10.65" rerouteNo="1" devices="tripinfo_f_1.32 routing_f_1.32" vType="DEFAULT_VEHTYPE" speedFactor="1.02" vaporized=""/>
    <tripinfo id="f_1.21" depart="57.00" departLane="I8I7_0" departPos="5.10" departSpeed="0.00" departDelay="0.83" arrival="204.00" arrivalLane="B0A0_0" arrivalPos="89.60" arrivalSpeed="12.37" duration="147.00" routeLength="1584.68" waitingTime="0.00" waitingCount="0" stopTime="0.00" timeLoss="18.98" rerouteNo="1" devices="tripinfo_f_1.21 routing_f_1.21" vType="DEFAULT_VEHTYPE" speedFactor="0.90" vaporized=""/>
    <tripinfo id="f_0.27" depart="63.00" departLane="A8B8_0" departPos="5.10" departSpeed="0.00" departDelay="0.36" arrival="204.00" arrivalLane="I1I0_0" arrivalPos="89.60" arrivalSpeed="6.55" duration="141.00" routeLength="1584.68" waitingTime="0.00" waitingCount="0" stopTime="0.00" timeLoss="13.93" rerouteNo="1" devices="tripinfo_f_0.27 routing_f_0.27" vType="DEFAULT_VEHTYPE" speedFactor="0.90" vaporized=""/>
    <tripinfo id="f_1.36" depart="81.00" departLane="I8H8_0" departPos="5.10" departSpeed="0.00" departDelay="3.45" arrival="204.00" arrivalLane="A1A0_0" arrivalPos="89.60" arrivalSpeed="14.37" duration="123.00" routeLength="1589.84" waitingTime="0.00" waitingCount="0" stopTime="0.00" timeLoss="11.89" rerouteNo="1" devices="tripinfo_f_1.36 routing_f_1.36" vType="DEFAULT_VEHTYPE" speedFactor="1.04" vaporized=""/>
    <tripinfo id="f_1.37" depart="84.00" departLane="I8H8_0" departPos="5.10" departSpeed="0.00" departDelay="4.13" arrival="208.00" arrivalLane="A1A0_0" arrivalPos="89.60" arrivalSpeed="13.13" duration="124.00" routeLength="1589.84" waitingTime="0.00" waitingCount="0" stopTime="0.00" timeLoss="11.16" rerouteNo="1" devices="tripinfo_f_1.37 routing_f_1.37" vType="DEFAULT_VEHTYPE" speedFactor="1.02" vaporized=""/>
    <tripinfo id="f_0.30" depart="75.00" departLane="A8A7_0" departPos="5.10" departSpeed="0.00" departDelay="0.75" arrival="209.00" arrivalLane="H0I0_0" arrivalPos="89.60" arrivalSpeed="12.05" duration="134.00" routeLength="1589.84" waitingTime="0.00" waitingCount="0" stopTime="0.00" timeLoss="10.65" rerouteNo="1" devices="tripinfo_f_0.30 routing_f_0.30" vType="DEFAULT_VEHTYPE" speedFactor="0.94" vaporized=""/>
    <tripinfo id="f_1.38" depart="87.00" departLane="I8H8_0" departPos="5.10" departSpeed="0.00" departDelay="2.22" arrival="210.00" arrivalLane="A1A0_0" arrivalPos="89.60" arrivalSpeed="14.03" duration="123.00" routeLength="1589.84" waitingTime="0.00" waitingCount="0" stopTime="0.00" timeLoss="12.81" rerouteNo="1" devices="tripinfo_f_1.38 routing_f_1.38" vType="DEFAULT_VEHTYPE" speedFactor="1.06" vaporized=""/>
    <tripinfo id="f_1.22" depart="64.00" departLane="I8I7_0" departPos="5.10" departSpeed="0.00" departDelay="7.02" arrival="212.00" arrivalLane="B0A0_0" arrivalPos="89.60" arrivalSpeed="11.38" duration="148.00" routeLength="1584.68" waitingTime="0.00" waitingCount="0" stopTime="0.00" timeLoss="16.54" rerouteNo="1" devices="tripinfo_f_1.22 routing_f_1.22" vType="DEFAULT_VEHTYPE" speedFactor="0.88" vaporized=""/>
    <tripinfo id="f_1.39" depart="90.00" departLane="I8H8_0" departPos="5.10" departSpeed="0.00" departDelay="1.80" arrival="218.00" arrivalLane="A1A0_0" arrivalPos="89.60" arrivalSpeed="13.39" duration="128.00" routeLength="1589.84" waitingTime="0.00" waitingCount="0" stopTime="0.00" timeLoss="10.52" rerouteNo="1" devices="tripinfo_f_1.39 routing_f_1.39" vType="DEFAULT_VEHTYPE" speedFactor="0.98" vaporized=""/>
    <tripinfo id="f_1.40" depart="94.00" departLane="I8H8_0" departPos="5.10" departSpeed="0.00" departDelay="0.75" arrival="219.00" arrivalLane="A1A0_0" arrivalPos="89.60" arrivalSpeed="13.90" duration="125.00" routeLength="1589.84" waitingTime="0.00" waitingCount="0" stopTime="0.00" timeLoss="10.86" rerouteNo="1" devices="tripinfo_f_1.40 routing_f_1.40" vType="DEFAULT_VEHTYPE" speedFactor="1.01" vaporized=""/>
    <tripinfo id="f_1.23" depart="71.00" departLane="I8I7_0" departPos="5.10" departSpeed="0.00" departDelay="13.35" arrival="220.00" arrivalLane="B0A0_0" arrivalPos="89.60" arrivalSpeed="10.53" duration="149.00" routeLength="1584.68" waitingTime="0.00" waitingCount="0" stopTime="0.00" timeLoss="13.66" rerouteNo="1" devices="tripinfo_f_1.23 routing_f_1.23" vType="DEFAULT_VEHTYPE" speedFactor="0.85" vaporized=""/>
    <tripinfo id="f_0.31" depart="78.00" departLane="A8A7_0" departPos="5.10" departSpeed="0.00" departDelay="3.60" arrival="221.00" arrivalLane="H0I0_0" arrivalPos="89.60" arrivalSpeed="11.40" duration="143.00" routeLength="1589.84" waitingTime="0.00" waitingCount="0" stopTime="0.00" timeLoss="11.46" rerouteNo="1" devices="tripinfo_f_0.31 routing_f_0.31" vType="DEFAULT_VEHTYPE" speedFactor="0.88" vaporized=""/>
    <tripinfo id="f_1.41" depart="97.00" departLane="I8H8_0" departPos="5.10" departSpeed="0.00" departDelay="1.27" arrival="221.00" arrivalLane="A1A0_0" arrivalPos="89.60" arrivalSpeed="13.44" duration="124.00" routeLength="1589.84" waitingTime="0.00" waitingCount="0" stopTime="0.00" timeLoss="12.06" rerouteNo="1" devices="tripinfo_f_1.41 routing_f_1.41" vType="DEFAULT_VEHTYPE" speedFactor="1.03" vaporized=""/>
    <tripinfo id="f_0.32" depart="81.00" departLane="A8A7_0" departPos="5.10" departSpeed="0.00" departDelay="1.19" arrival="222.00" arrivalLane="H0I0_0" arrivalPos="89.60" arrivalSpeed="13.58" duration="141.00" routeLength="1589.84" waitingTime="0.00" waitingCount="0" stopTime="0.00" timeLoss="27.89" rerouteNo="1" devices="tripinfo_f_0.32 routing_f_0.32" vType="DEFAULT_VEHTYPE" speedFactor="1.02" vaporized=""/>